 Gaussian 16, Revision A.03,

 --------------------------------
 #p BMK/6-31+G(2df,p) Opt=calcall
 --------------------------------

 ----------------------
 G4(MP2)-6X calculation
 ----------------------
 Symbolic Z-matrix:
 Charge =  0 Multiplicity = 1

 SCF Done:  E(RBMK) =  -234.487636091     A.U. after   12 cycles
 SCF Done:  E(RBMK) =  -234.487653535     A.U. after    9 cycles
 SCF Done:  E(RBMK) =  -234.487647114     A.U. after    8 cycles
 SCF Done:  E(RBMK) =  -234.487637179     A.U. after    8 cycles
 SCF Done:  E(RBMK) =  -234.487653566     A.U. after    8 cycles
 Optimization completed.
    -- Stationary point found.

  Exact polarizability:  76.367   1.897  69.563   0.409  -1.646  56.918
 Approx polarizability:  93.620   4.033  79.140   0.493  -2.022  73.034

                      1                      2                      3
                      A                      A                      A
 Frequencies --     29.7523               200.1394               419.5795
 Red. masses --      1.6468                 1.7846                 2.1733
 Frc consts  --      0.0009                 0.0421                 0.2254
 IR Inten    --      0.0277                 0.3085                 0.2547

                      4                      5                      6
                      A                      A                      A
 Frequencies --    436.7734               527.7827               687.7585
 Red. masses --      2.4435                 3.8944                 1.7703
 Frc consts  --      0.2747                 0.6392                 0.4934
 IR Inten    --      2.2156                 0.0001                 0.4256

                      7                      8                      9
                      A                      A                      A
 Frequencies --    708.6618               762.3673               833.6903
 Red. masses --      1.3151                 1.3211                 2.9830
 Frc consts  --      0.3891                 0.4524                 1.2215
 IR Inten    --     45.9227                 2.4372                 0.1869

                     10                     11                     12
                      A                      A                      A
 Frequencies --    903.8270               953.6760               959.5860
 Red. masses --      2.2239                 1.7569                 2.2013
 Frc consts  --      1.0704                 0.9415                 1.1943
 IR Inten    --      2.9588                 6.1971                 1.1472

                     13                     14                     15
                      A                      A                      A
 Frequencies --    980.6042              1004.5500              1061.9848
 Red. masses --      1.6100                 1.6879                 1.7206
 Frc consts  --      0.9121                 1.0035                 1.1433
 IR Inten    --      0.1412                 0.4976                 0.5239

                     16                     17                     18
                      A                      A                      A
 Frequencies --   1098.9932              1104.9083              1161.0569
 Red. masses --      2.0728                 2.1322                 1.0764
 Frc consts  --      1.4750                 1.5337                 0.8549
 IR Inten    --      1.3928                 0.4589                 0.9290

                     19                     20                     21
                      A                      A                      A
 Frequencies --   1184.5166              1242.6369              1245.6866
 Red. masses --      1.1880                 1.3545                 1.2395
 Frc consts  --      0.9821                 1.2323                 1.1332
 IR Inten    --      1.2933                 1.7764                 4.9508

                     22                     23                     24
                      A                      A                      A
 Frequencies --   1288.3207              1333.3850              1335.0018
 Red. masses --      1.1908                 1.2234                 1.3063
 Frc consts  --      1.1645                 1.2816                 1.3717
 IR Inten    --      1.5910                 0.0073                 0.1294

                     25                     26                     27
                      A                      A                      A
 Frequencies --   1359.3485              1380.9830              1414.6149
 Red. masses --      1.4461                 1.4723                 1.6360
 Frc consts  --      1.5744                 1.6543                 1.9290
 IR Inten    --      0.5265                 0.0516                 0.2605

                     28                     29                     30
                      A                      A                      A
 Frequencies --   1484.7882              1493.4067              1496.0771
 Red. masses --      1.0852                 1.0936                 1.0914
 Frc consts  --      1.4096                 1.4370                 1.4393
 IR Inten    --      0.2414                 2.0121                 9.4362

                     31                     32                     33
                      A                      A                      A
 Frequencies --   1516.2921              1689.4805              3013.9139
 Red. masses --      1.0962                 6.2404                 1.0693
 Frc consts  --      1.4849                10.4947                 5.7229
 IR Inten    --      1.5700                 3.5073                35.4401

                     34                     35                     36
                      A                      A                      A
 Frequencies --   3019.9521              3047.7241              3062.4112
 Red. masses --      1.0693                 1.0594                 1.0620
 Frc consts  --      5.7460                 5.7978                 5.8684
 IR Inten    --     11.2674                21.8439                49.1986

                     37                     38                     39
                      A                      A                      A
 Frequencies --   3083.7106              3094.9276              3097.3409
 Red. masses --      1.1012                 1.0931                 1.0954
 Frc consts  --      6.1694                 6.1689                 6.1918
 IR Inten    --     13.3852                12.1858                34.8962

                     40                     41                     42
                      A                      A                      A
 Frequencies --   3111.2718              3172.1803              3196.4953
 Red. masses --      1.1053                 1.0851                 1.1003
 Frc consts  --      6.3036                 6.4334                 6.6237
 IR Inten    --     47.0020                 5.1850                24.3379

 - Thermochemistry -
 -------------------
 Temperature   298.150 Kelvin.  Pressure   1.00000 Atm.
 Atom     1 has atomic number  6 and mass  12.00000

 Molecular mass:    82.07825 amu.
 Principal axes and moments of inertia in atomic units:
                           1         2         3
     Eigenvalues --   389.93387 397.81837 692.93722
           X           -0.26985   0.96290   0.00125
           Y            0.96289   0.26985  -0.00462
           Z            0.00479   0.00004   0.99999
 This molecule is an asymmetric top.
 Rotational symmetry number  1.
 Rotational temperatures (Kelvin)      0.22212     0.21772     0.12500
 Rotational constants (GHZ):           4.62833     4.53660     2.60448
 Zero-point vibrational energy     384002.2 (Joules/Mol)
                                   91.77873 (Kcal/Mol)
 Warning -- explicit consideration of   5 degrees of freedom as
           vibrations may cause significant error
 Vibrational temperatures:     42.81   287.96   603.68   628.42   759.36
          (Kelvin)            989.53  1019.61  1096.88  1199.49  1300.41
                             1372.13  1380.63  1410.87  1445.32  1527.96
                             1581.21  1589.72  1670.50  1704.26  1787.88
                             1792.27  1853.61  1918.44  1920.77  1955.80
                             1986.93  2035.32  2136.28  2148.68  2152.52
                             2181.61  2430.79  4336.35  4345.04  4385.00
                             4406.13  4436.77  4452.91  4456.38  4476.43
                             4564.06  4599.04

 Zero-point correction=                           0.146259 (Hartree/Particle)
 Thermal correction to Energy=                    0.152124
 Thermal correction to Enthalpy=                  0.153068
 Thermal correction to Gibbs Free Energy=         0.116129
 Sum of electronic and zero-point Energies=           -234.341395
 Sum of electronic and thermal Energies=              -234.335530
 Sum of electronic and thermal Enthalpies=            -234.334586
 Sum of electronic and thermal Free Energies=         -234.371524

                     E (Thermal)             CV                S
                      KCal/Mol        Cal/Mol-Kelvin    Cal/Mol-Kelvin
 Total                   95.459             21.657             77.743
 Electronic               0.000              0.000              0.000
 Translational            0.889              2.981             39.129
 Rotational               0.889              2.981             26.177
 Vibrational             93.682             15.695             12.437
 Vibration     1          0.594              1.984              5.846
 Vibration     2          0.638              1.840              2.132
 Vibration     3          0.782              1.428              0.893
 Vibration     4          0.797              1.390              0.837
 Vibration     5          0.883              1.189              0.592

 Normal termination of Gaussian 16 at Thu Mar 12 15:22:55 2020.

 ------------------------------------------------
 #p Geom=AllCheck Guess=Read CCSD(T,FrzG4)/GTBas1
 ------------------------------------------------

 Structure from the checkpoint file:  "DA-P.chk"
 ----------------------
 G4(MP2)-6X calculation
 ----------------------
 Charge =  0 Multiplicity = 1

 SCF Done:  E(RHF) =  -233.007448495     A.U. after   11 cycles
 E2 =    -0.7744217981D+00 EUMP2 =    -0.23378187029352D+03
 CCSD(T)
 CCSD(T)= -0.23387401376D+03
 559\CCSD=-233.8445962\CCSD(T)=-233.8740138\RMSD=3.901e-09\PG=C01 [X(C6
 Normal termination of Gaussian 16 at Thu Mar 12 15:23:49 2020.

 ---------------------------------------------------
 #p Geom=AllCheck Guess=Read MP2(FrzG4)/GTMP2LargeXP
 ---------------------------------------------------

 Structure from the checkpoint file:  "DA-P.chk"
 ----------------------
 G4(MP2)-6X calculation
 ----------------------
 Charge =  0 Multiplicity = 1

 SCF Done:  E(RHF) =  -233.081075969     A.U. after   10 cycles
 E2 =    -0.1001406763D+01 EUMP2 =    -0.23408248273166D+03
 Normal termination of Gaussian 16 at Thu Mar 12 15:24:45 2020.

 -------------------------------------
 #p Geom=AllCheck Guess=Read HF/GFHFB3
 -------------------------------------

 Structure from the checkpoint file:  "DA-P.chk"
 ----------------------
 G4(MP2)-6X calculation
 ----------------------
 Charge =  0 Multiplicity = 1

 SCF Done:  E(RHF) =  -233.080724946     A.U. after    8 cycles
 Normal termination of Gaussian 16 at Thu Mar 12 15:25:00 2020.
 Gaussian 16:  ES64L-G16RevA.03 25-Dec-2016

 -------------------------------------
 #p Geom=AllCheck Guess=Read HF/GFHFB4
 -------------------------------------

 Structure from the checkpoint file:  "DA-P.chk"
 ----------------------
 G4(MP2)-6X calculation
 ----------------------
 Charge =  0 Multiplicity = 1

                         Standard orientation:
 ---------------------------------------------------------------------
 Center     Atomic      Atomic             Coordinates (Angstroms)
 Number     Number       Type             X           Y           Z
 ---------------------------------------------------------------------
      1          6           0       -0.976518    1.091527   -0.187314
      2          6           0        0.318924    1.428612   -0.189776
      3          1           0       -1.741982    1.765254   -0.567378
      4          1           0        0.657445    2.389755   -0.571743
      5          6           0        1.324334    0.440349    0.359924
      6          1           0        2.352563    0.746094    0.134663
      7          1           0        1.238087    0.413702    1.458438
      8          6           0       -1.369860   -0.262014    0.362635
      9          1           0       -1.276591   -0.245933    1.460807
     10          1           0       -2.417390   -0.496712    0.141090
     11          6           0       -0.447044   -1.374385   -0.204259
     12          1           0       -0.607178   -2.297786    0.366306
     13          1           0       -0.762372   -1.581499   -1.234201
     14          6           0        1.061295   -0.984368   -0.198919
     15          1           0        1.446929   -1.021832   -1.225050
     16          1           0        1.643704   -1.709369    0.383322
 ---------------------------------------------------------------------

 SCF Done:  E(RHF) =  -233.100103186     A.U. after    8 cycles

 The electronic state is 1-A.
 Alpha  occ. eigenvalues --  -11.22207 -11.22205 -11.21944 -11.21924 -11.21871
 Alpha  occ. eigenvalues --  -11.21777  -1.11255  -0.99784  -0.99275  -0.84494
 Alpha  occ. eigenvalues --   -0.80640  -0.68930  -0.66618  -0.63814  -0.55255
 Alpha  occ. eigenvalues --   -0.55180  -0.54871  -0.52423  -0.52407  -0.45572
 Alpha  occ. eigenvalues --   -0.45121  -0.43348  -0.34025
 Alpha virt. eigenvalues --    0.05132   0.05176   0.05615   0.05857   0.06734
 Alpha virt. eigenvalues --    0.07551   0.08357   0.09471   0.10230   0.10885
 Alpha virt. eigenvalues --    0.11453   0.12022   0.12408   0.13042   0.13477

 Mulliken charges:
               1
     1  C   -0.187045
     2  C   -0.187450
     3  H    0.120500
     4  H    0.120461
     5  C   -0.119417
     6  H    0.093051
     7  H    0.078733
     8  C   -0.119542
     9  H    0.078881
    10  H    0.093068
    11  C   -0.146691
    12  H    0.087508
    13  H    0.074227
    14  C   -0.148003
    15  H    0.074200
    16  H    0.087522
 Sum of Mulliken charges =  -0.00000

 Dipole moment (field-independent basis, Debye):
    X=              0.0763    Y=             -0.2920    Z=              0.1058  Tot=              0.3199
 Quadrupole moment (field-independent basis, Debye-Ang):
   XX=            -37.4600   YY=            -39.1677   ZZ=            -39.6885
   XY=              0.4751   XZ=              0.2510   YZ=             -0.9846

 Normal termination of Gaussian 16 at Thu Mar 12 15:27:09 2020.
