 Gaussian 16, Revision A.03,

 -------------------------------
 #p BMK/6-31+G(2df,p) Opt=calcfc
 -------------------------------

 ----------------------
 G4(MP2)-6X calculation
 ----------------------
 Symbolic Z-matrix:
 Charge =  0 Multiplicity = 1

 SCF Done:  E(RBMK) =  -234.412214540     A.U. after   12 cycles
 SCF Done:  E(RBMK) =  -234.412492583     A.U. after   11 cycles
 SCF Done:  E(RBMK) =  -234.404028257     A.U. after   12 cycles
 SCF Done:  E(RBMK) =  -234.412718112     A.U. after   11 cycles
 SCF Done:  E(RBMK) =  -234.412756854     A.U. after   10 cycles
 SCF Done:  E(RBMK) =  -234.412776468     A.U. after   10 cycles
 SCF Done:  E(RBMK) =  -234.412784057     A.U. after   10 cycles
 SCF Done:  E(RBMK) =  -234.412761629     A.U. after   10 cycles
 SCF Done:  E(RBMK) =  -234.412787946     A.U. after   10 cycles
 SCF Done:  E(RBMK) =  -234.412789064     A.U. after    8 cycles
 SCF Done:  E(RBMK) =  -234.412790442     A.U. after    8 cycles
 SCF Done:  E(RBMK) =  -234.412790534     A.U. after    8 cycles
 SCF Done:  E(RBMK) =  -234.412790564     A.U. after    8 cycles
 SCF Done:  E(RBMK) =  -234.412790597     A.U. after    8 cycles
 SCF Done:  E(RBMK) =  -234.412790604     A.U. after    7 cycles
 Optimization completed.
    -- Stationary point found.
 Normal termination of Gaussian 16 at Thu Mar 12 13:33:45 2020.

 --------------------------------------------------
 #p Geom=AllCheck Guess=Read BMK/6-31+G(2df,p) Freq
 --------------------------------------------------

 Structure from the checkpoint file:  "DA-R.chk"
 ----------------------
 G4(MP2)-6X calculation
 ----------------------
 Charge =  0 Multiplicity = 1

 SCF Done:  E(RBMK) =  -234.412790604     A.U. after    1 cycles

  Exact polarizability:  71.320  -7.115  87.625  10.377  -1.708  65.275
 Approx polarizability:  81.904  -9.328 109.254  16.919  -4.988  86.116

                      1                      2                      3
                      A                      A                      A
 Frequencies --     37.5758                45.3496                60.9514
 Red. masses --      2.5922                 2.6334                 2.0759
 Frc consts  --      0.0022                 0.0032                 0.0045
 IR Inten    --      0.0487                 0.0142                 0.0962

                      4                      5                      6
                      A                      A                      A
 Frequencies --     81.7300               130.3517               173.7110
 Red. masses --      2.6584                 2.2490                 1.4296
 Frc consts  --      0.0105                 0.0225                 0.0254
 IR Inten    --      0.0674                 0.0342                 0.0712

                      7                      8                      9
                      A                      A                      A
 Frequencies --    247.7086               302.6518               484.8087
 Red. masses --      1.8715                 2.0498                 1.3648
 Frc consts  --      0.0677                 0.1106                 0.1890
 IR Inten    --      0.3380                 0.2280                16.2207

                     10                     11                     12
                      A                      A                      A
 Frequencies --    625.0002               767.3551               830.1723
 Red. masses --      1.6575                 1.5954                 1.0414
 Frc consts  --      0.3815                 0.5535                 0.4229
 IR Inten    --     10.7903                 4.2128                 1.2889

                     13                     14                     15
                      A                      A                      A
 Frequencies --    890.7951               965.2440               979.7824
 Red. masses --      2.0638                 1.3599                 1.3672
 Frc consts  --      0.9649                 0.7465                 0.7733
 IR Inten    --      0.5373                46.2040                66.4639

                     16                     17                     18
                      A                      A                      A
 Frequencies --    990.2717              1015.3400              1033.8965
 Red. masses --      1.3421                 1.2452                 1.1198
 Frc consts  --      0.7754                 0.7563                 0.7053
 IR Inten    --     41.7807                41.4289                 4.3074

                     19                     20                     21
                      A                      A                      A
 Frequencies --   1048.6064              1069.1971              1091.2261
 Red. masses --      1.0787                 1.4662                 1.0323
 Frc consts  --      0.6988                 0.9875                 0.7243
 IR Inten    --     29.1628                 0.0212                 2.2372

                     22                     23                     24
                      A                      A                      A
 Frequencies --   1109.8507              1244.8503              1313.1556
 Red. masses --      1.5627                 1.5170                 1.2863
 Frc consts  --      1.1341                 1.3851                 1.3069
 IR Inten    --      5.0721                 0.3455                 0.1476

                     25                     26                     27
                      A                      A                      A
 Frequencies --   1345.6789              1381.4043              1441.6326
 Red. masses --      1.3101                 1.2541                 1.1670
 Frc consts  --      1.3978                 1.4100                 1.4289
 IR Inten    --      0.0209                 1.1129                 1.4223

                     28                     29                     30
                      A                      A                      A
 Frequencies --   1472.5820              1476.0309              1672.6971
 Red. masses --      1.2423                 1.1263                 4.8862
 Frc consts  --      1.5872                 1.4458                 8.0548
 IR Inten    --     15.9824                 8.4971                 2.5816

                     31                     32                     33
                      A                      A                      A
 Frequencies --   1677.7154              1684.6783              3146.4260
 Red. masses --      3.0047                 3.5289                 1.0498
 Frc consts  --      4.9830                 5.9010                 6.1235
 IR Inten    --      1.7972                 3.5499                 9.2339

                     34                     35                     36
                      A                      A                      A
 Frequencies --   3151.3718              3154.5453              3159.2623
 Red. masses --      1.0649                 1.0602                 1.0811
 Frc consts  --      6.2311                 6.2160                 6.3576
 IR Inten    --      1.8709                 6.0237                 6.5241

                     37                     38                     39
                      A                      A                      A
 Frequencies --   3163.3443              3172.3297              3231.4504
 Red. masses --      1.0727                 1.0921                 1.1127
 Frc consts  --      6.3242                 6.4753                 6.8459
 IR Inten    --      2.4695                 7.5598                 1.4088

                     40                     41                     42
                      A                      A                      A
 Frequencies --   3248.1292              3250.5077              3259.5471
 Red. masses --      1.1160                 1.1160                 1.1160
 Frc consts  --      6.9369                 6.9473                 6.9861
 IR Inten    --      5.3072                 5.1873                 8.3114

 - Thermochemistry -
 -------------------
 Temperature   298.150 Kelvin.  Pressure   1.00000 Atm.
 Atom     1 has atomic number  6 and mass  12.00000

 Molecular mass:    82.07825 amu.
 Principal axes and moments of inertia in atomic units:
                           1         2         3
     Eigenvalues --   417.673261076.910981340.60898
           X            0.99993  -0.00724   0.00968
           Y            0.00727   0.99997  -0.00265
           Z           -0.00966   0.00272   0.99995
 This molecule is an asymmetric top.
 Rotational symmetry number  1.
 Rotational temperatures (Kelvin)      0.20737     0.08043     0.06461
 Rotational constants (GHZ):           4.32094     1.67585     1.34621
 Zero-point vibrational energy     362641.4 (Joules/Mol)
                                   86.67339 (Kcal/Mol)
 Warning -- explicit consideration of   9 degrees of freedom as
           vibrations may cause significant error
 Vibrational temperatures:     54.06    65.25    87.70   117.59   187.55
          (Kelvin)            249.93   356.40   435.45   697.53   899.24
                             1104.05  1194.43  1281.66  1388.77  1409.69
                             1424.78  1460.85  1487.55  1508.71  1538.34
                             1570.03  1596.83  1791.06  1889.34  1936.13
                             1987.53  2074.19  2118.72  2123.68  2406.64
                             2413.86  2423.88  4527.01  4534.12  4538.69
                             4545.47  4551.35  4564.27  4649.34  4673.33
                             4676.76  4689.76

 Zero-point correction=                           0.138123 (Hartree/Particle)
 Thermal correction to Energy=                    0.147390
 Thermal correction to Enthalpy=                  0.148334
 Thermal correction to Gibbs Free Energy=         0.102364
 Sum of electronic and zero-point Energies=           -234.274668
 Sum of electronic and thermal Energies=              -234.265401
 Sum of electronic and thermal Enthalpies=            -234.264457
 Sum of electronic and thermal Free Energies=         -234.310427

                     E (Thermal)             CV                S
                      KCal/Mol        Cal/Mol-Kelvin    Cal/Mol-Kelvin
 Total                   92.488             29.209             96.752
 Electronic               0.000              0.000              0.000
 Translational            0.889              2.981             39.129
 Rotational               0.889              2.981             27.891
 Vibrational             90.711             23.248             29.732
 Vibration     1          0.594              1.982              5.383
 Vibration     2          0.595              1.979              5.011
 Vibration     3          0.597              1.973              4.426
 Vibration     4          0.600              1.962              3.849
 Vibration     5          0.612              1.923              2.941
 Vibration     6          0.627              1.875              2.395
 Vibration     7          0.661              1.767              1.747
 Vibration     8          0.694              1.669              1.402
 Vibration     9          0.841              1.284              0.697

 Optimization completed.
    -- Stationary point found.
 Normal termination of Gaussian 16 at Thu Mar 12 13:36:10 2020.

 ------------------------------------------------
 #p Geom=AllCheck Guess=Read CCSD(T,FrzG4)/GTBas1
 ------------------------------------------------

 Structure from the checkpoint file:  "DA-R.chk"
 ----------------------
 G4(MP2)-6X calculation
 ----------------------
 Charge =  0 Multiplicity = 1

 SCF Done:  E(RHF) =  -232.943611891     A.U. after   11 cycles
 E2 =    -0.7627265137D+00 EUMP2 =    -0.23370633840508D+03
 CCSD(T)
 CCSD(T)= -0.23380723345D+03
 -233.7737869\CCSD=-233.7764419\CCSD(T)=-233.8072335\RMSD=9.676e-09\PG=
 Normal termination of Gaussian 16 at Thu Mar 12 13:37:09 2020.

 ---------------------------------------------------
 #p Geom=AllCheck Guess=Read MP2(FrzG4)/GTMP2LargeXP
 ---------------------------------------------------

 Structure from the checkpoint file:  "DA-R.chk"
 ----------------------
 G4(MP2)-6X calculation
 ----------------------
 Charge =  0 Multiplicity = 1

 SCF Done:  E(RHF) =  -233.028129909     A.U. after   12 cycles
 E2 =    -0.9837418997D+00 EUMP2 =    -0.23401187180829D+03
 Normal termination of Gaussian 16 at Thu Mar 12 13:38:01 2020.

 -------------------------------------
 #p Geom=AllCheck Guess=Read HF/GFHFB3
 -------------------------------------

 Structure from the checkpoint file:  "DA-R.chk"
 ----------------------
 G4(MP2)-6X calculation
 ----------------------
 Charge =  0 Multiplicity = 1

 SCF Done:  E(RHF) =  -233.027925551     A.U. after    9 cycles
 Normal termination of Gaussian 16 at Thu Mar 12 13:38:14 2020.
 Gaussian 16:  ES64L-G16RevA.03 25-Dec-2016

 -------------------------------------
 #p Geom=AllCheck Guess=Read HF/GFHFB4
 -------------------------------------

 Structure from the checkpoint file:  "DA-R.chk"
 ----------------------
 G4(MP2)-6X calculation
 ----------------------
 Charge =  0 Multiplicity = 1

                         Standard orientation:
 ---------------------------------------------------------------------
 Center     Atomic      Atomic             Coordinates (Angstroms)
 Number     Number       Type             X           Y           Z
 ---------------------------------------------------------------------
      1          6           0        1.890582   -0.533264    0.234545
      2          6           0        1.401748    0.837299    0.485396
      3          1           0        2.802177   -0.817735    0.761227
      4          1           0        1.645732    1.260462    1.460588
      5          6           0        0.718729    1.584938   -0.392769
      6          1           0        0.377268    2.584802   -0.136033
      7          1           0        0.500227    1.225153   -1.396609
      8          6           0        1.288853   -1.432815   -0.556252
      9          1           0        0.348251   -1.211412   -1.058185
     10          1           0        1.714601   -2.421256   -0.709855
     11          6           0       -2.174237   -0.684490    0.533359
     12          1           0       -2.687471   -1.622462    0.737201
     13          1           0       -1.187999   -0.554800    0.975887
     14          6           0       -2.725082    0.264053   -0.226681
     15          1           0       -2.207742    1.201685   -0.423478
     16          1           0       -3.708598    0.141244   -0.676338
 ---------------------------------------------------------------------

 SCF Done:  E(RHF) =  -233.047588355     A.U. after    8 cycles

 The electronic state is 1-A.
 Alpha  occ. eigenvalues --  -11.24129 -11.24014 -11.23102 -11.22934 -11.22698
 Alpha  occ. eigenvalues --  -11.22514  -1.08912  -1.02761  -0.99337  -0.84193
 Alpha  occ. eigenvalues --   -0.78633  -0.72861  -0.66827  -0.63712  -0.60786
 Alpha  occ. eigenvalues --   -0.59116  -0.58174  -0.52531  -0.50158  -0.49686
 Alpha  occ. eigenvalues --   -0.42793  -0.37209  -0.33100
 Alpha virt. eigenvalues --    0.04923   0.04986   0.05482   0.06083   0.06696
 Alpha virt. eigenvalues --    0.07453   0.07827   0.08773   0.09193   0.10402
 Alpha virt. eigenvalues --    0.10770   0.10968   0.11786   0.12168   0.12587

 Mulliken charges:
               1
     1  C   -0.109113
     2  C   -0.129759
     3  H    0.107975
     4  H    0.109159
     5  C   -0.208219
     6  H    0.117089
     7  H    0.100029
     8  C   -0.223435
     9  H    0.113988
    10  H    0.117646
    11  C   -0.229707
    12  H    0.108025
    13  H    0.126306
    14  C   -0.211286
    15  H    0.104570
    16  H    0.106731
 Sum of Mulliken charges =  -0.00000

 Dipole moment (field-independent basis, Debye):
    X=              0.1406    Y=             -0.0340    Z=              0.0375  Tot=              0.1494
 Quadrupole moment (field-independent basis, Debye-Ang):
   XX=            -39.9075   YY=            -37.3074   ZZ=            -39.9821
   XY=             -0.8879   XZ=              3.7699   YZ=             -0.0405

 Normal termination of Gaussian 16 at Thu Mar 12 13:39:44 2020.
