 Gaussian 16, Revision A.03,

 -------------------------------
 #p BMK/6-31+G(2df,p) Opt=calcfc
 -------------------------------

 ----------------------------------------
 Hydrogen molecule G4(MP2)-6X calculation
 ----------------------------------------
 Symbolic Z-matrix:
 Charge =  0 Multiplicity = 1

 SCF Done:  E(RBMK) =  -155.874030086     A.U. after   10 cycles
 SCF Done:  E(RBMK) =  -155.880686036     A.U. after   11 cycles
 SCF Done:  E(RBMK) =  -155.880427855     A.U. after   11 cycles
 SCF Done:  E(RBMK) =  -155.880871242     A.U. after    9 cycles
 SCF Done:  E(RBMK) =  -155.880994523     A.U. after   10 cycles
 SCF Done:  E(RBMK) =  -155.881160099     A.U. after   10 cycles
 SCF Done:  E(RBMK) =  -155.881347229     A.U. after   10 cycles
 SCF Done:  E(RBMK) =  -155.881525910     A.U. after   10 cycles
 SCF Done:  E(RBMK) =  -155.881640918     A.U. after    9 cycles
 SCF Done:  E(RBMK) =  -155.881652616     A.U. after    8 cycles
 SCF Done:  E(RBMK) =  -155.881653254     A.U. after    8 cycles
 Optimization completed.
    -- Stationary point found.
 Normal termination of Gaussian 16 at Mon Jun  1 23:43:29 2020.

 --------------------------------------------------
 #p Geom=AllCheck Guess=Read BMK/6-31+G(2df,p) Freq
 --------------------------------------------------

 Structure from the checkpoint file:  "DA-R.chk"
 ----------------------------------------
 Hydrogen molecule G4(MP2)-6X calculation
 ----------------------------------------
 Charge =  0 Multiplicity = 1

 SCF Done:  E(RBMK) =  -155.881653254     A.U. after    1 cycles

  Exact polarizability:  35.206  -6.792  64.285   0.000   0.000  50.925
 Approx polarizability:  42.271  -5.823  74.357   0.000   0.000  66.451

                      1                      2                      3
                      A                      A                      B
 Frequencies --    164.0374               276.3943               473.6778
 Red. masses --      1.5805                 2.4042                 1.3616
 Frc consts  --      0.0251                 0.1082                 0.1800
 IR Inten    --      0.1420                 0.0026                16.4167

                      4                      5                      6
                      B                      A                      A
 Frequencies --    620.8083               764.9032               890.4440
 Red. masses --      1.6991                 1.6134                 2.0560
 Frc consts  --      0.3858                 0.5562                 0.9605
 IR Inten    --     10.8722                 4.2994                 0.5961

                      7                      8                      9
                      A                      B                      A
 Frequencies --    963.7899               965.5552              1027.6520
 Red. masses --      1.3604                 1.3485                 1.1381
 Frc consts  --      0.7445                 0.7407                 0.7081
 IR Inten    --      7.1964                83.7469                 2.2877

                     10                     11                     12
                      B                      A                      B
 Frequencies --   1043.7036              1069.8477              1107.3886
 Red. masses --      1.0937                 1.4793                 1.5872
 Frc consts  --      0.7019                 0.9976                 1.1468
 IR Inten    --     30.4465                 0.0119                 6.1600

                     13                     14                     15
                      B                      A                      B
 Frequencies --   1312.0878              1343.3176              1439.9006
 Red. masses --      1.2852                 1.3090                 1.1667
 Frc consts  --      1.3036                 1.3917                 1.4253
 IR Inten    --      0.2674                 0.0062                 1.5597

                     16                     17                     18
                      A                      A                      B
 Frequencies --   1471.9406              1674.1131              1682.8872
 Red. masses --      1.2543                 5.0484                 3.6184
 Frc consts  --      1.6011                 8.3363                 6.0377
 IR Inten    --     11.5827                 2.6887                 7.1188

                     19                     20                     21
                      B                      A                      B
 Frequencies --   3151.7223              3153.8619              3159.4737
 Red. masses --      1.0640                 1.0585                 1.0841
 Frc consts  --      6.2269                 6.2032                 6.3757
 IR Inten    --      1.9777                 8.9770                 7.1358

                     22                     23                     24
                      A                      B                      A
 Frequencies --   3172.2868              3247.8285              3248.7315
 Red. masses --      1.0924                 1.1157                 1.1160
 Frc consts  --      6.4772                 6.9338                 6.9397
 IR Inten    --      7.5039                 8.7202                 3.1045

 - Thermochemistry -
 -------------------
 Temperature   298.150 Kelvin.  Pressure   1.00000 Atm.
 Atom     1 has atomic number  6 and mass  12.00000

 Molecular mass:    54.04695 amu.
 Principal axes and moments of inertia in atomic units:
                           1         2         3
     Eigenvalues --    84.52689 321.82502 396.68720
           X           -0.23122   0.00000   0.97290
           Y            0.97290   0.00000   0.23122
           Z           -0.00000   1.00000   0.00000
 This molecule is an asymmetric top.
 Rotational symmetry number  2.
 Rotational temperatures (Kelvin)      1.02469     0.26913     0.21834
 Rotational constants (GHZ):          21.35109     5.60783     4.54953
 Zero-point vibrational energy     223859.3 (Joules/Mol)
                                   53.50366 (Kcal/Mol)
 Warning -- explicit consideration of   3 degrees of freedom as
           vibrations may cause significant error
 Vibrational temperatures:    236.01   397.67   681.52   893.20  1100.53
          (Kelvin)           1281.15  1386.68  1389.22  1478.56  1501.66
                             1539.27  1593.29  1887.80  1932.73  2071.70
                             2117.79  2408.68  2421.30  4534.63  4537.70
                             4545.78  4564.21  4672.90  4674.20

 Zero-point correction=                           0.085264 (Hartree/Particle)
 Thermal correction to Energy=                    0.089942
 Thermal correction to Enthalpy=                  0.090886
 Thermal correction to Gibbs Free Energy=         0.059251
 Sum of electronic and zero-point Energies=           -155.796390
 Sum of electronic and thermal Energies=              -155.791712
 Sum of electronic and thermal Enthalpies=            -155.790767
 Sum of electronic and thermal Free Energies=         -155.822402

                     E (Thermal)             CV                S
                      KCal/Mol        Cal/Mol-Kelvin    Cal/Mol-Kelvin
 Total                   56.439             15.706             66.581
 Electronic               0.000              0.000              0.000
 Translational            0.889              2.981             37.884
 Rotational               0.889              2.981             22.516
 Vibrational             54.662              9.744              6.181
 Vibration     1          0.623              1.887              2.503
 Vibration     2          0.678              1.717              1.556
 Vibration     3          0.830              1.308              0.727

 Optimization completed.
    -- Stationary point found.
 Normal termination of Gaussian 16 at Mon Jun  1 23:44:07 2020.

 ------------------------------------------------
 #p Geom=AllCheck Guess=Read CCSD(T,FrzG4)/GTBas1
 ------------------------------------------------

 Structure from the checkpoint file:  "DA-R.chk"
 ----------------------------------------
 Hydrogen molecule G4(MP2)-6X calculation
 ----------------------------------------
 Charge =  0 Multiplicity = 1

 SCF Done:  E(RHF) =  -154.913244076     A.U. after   11 cycles
 E2 =    -0.5050294401D+00 EUMP2 =    -0.15541827351570D+03
 CCSD(T)
 CCSD(T)= -0.15548271397D+03
 MP4DQ=-155.4546494\MP4SDQ=-155.4601576\CCSD=-155.4616808\CCSD(T)=-155.
 Normal termination of Gaussian 16 at Mon Jun  1 23:44:18 2020.

 ---------------------------------------------------
 #p Geom=AllCheck Guess=Read MP2(FrzG4)/GTMP2LargeXP
 ---------------------------------------------------

 Structure from the checkpoint file:  "DA-R.chk"
 ----------------------------------------
 Hydrogen molecule G4(MP2)-6X calculation
 ----------------------------------------
 Charge =  0 Multiplicity = 1

 SCF Done:  E(RHF) =  -154.968204306     A.U. after   11 cycles
 E2 =    -0.6463658095D+00 EUMP2 =    -0.15561457011576D+03
 Normal termination of Gaussian 16 at Mon Jun  1 23:44:34 2020.

 -------------------------------------
 #p Geom=AllCheck Guess=Read HF/GFHFB3
 -------------------------------------

 Structure from the checkpoint file:  "DA-R.chk"
 ----------------------------------------
 Hydrogen molecule G4(MP2)-6X calculation
 ----------------------------------------
 Charge =  0 Multiplicity = 1

 SCF Done:  E(RHF) =  -154.968431985     A.U. after    9 cycles
 Normal termination of Gaussian 16 at Mon Jun  1 23:44:39 2020.
 Gaussian 16:  ES64L-G16RevA.03 25-Dec-2016

 -------------------------------------
 #p Geom=AllCheck Guess=Read HF/GFHFB4
 -------------------------------------

 Structure from the checkpoint file:  "DA-R.chk"
 ----------------------------------------
 Hydrogen molecule G4(MP2)-6X calculation
 ----------------------------------------
 Charge =  0 Multiplicity = 1

                         Standard orientation:
 ---------------------------------------------------------------------
 Center     Atomic      Atomic             Coordinates (Angstroms)
 Number     Number       Type             X           Y           Z
 ---------------------------------------------------------------------
      1          6           0       -0.283454    1.515454   -0.493628
      2          6           0       -0.283454    0.681756    0.555213
      3          1           0        0.180164    1.239288   -1.438886
      4          1           0       -0.734471    2.502489   -0.430388
      5          1           0       -0.710411    1.021081    1.499765
      6          6           0        0.283454   -0.681756    0.555213
      7          6           0        0.283454   -1.515454   -0.493628
      8          1           0        0.710411   -1.021081    1.499765
      9          1           0        0.734471   -2.502489   -0.430388
     10          1           0       -0.180164   -1.239288   -1.438886
 ---------------------------------------------------------------------

 SCF Done:  E(RHF) =  -154.981140201     A.U. after    8 cycles

 The electronic state is 1-A.
 Alpha  occ. eigenvalues --  -11.24079 -11.24003 -11.22959 -11.22959  -1.08814
 Alpha  occ. eigenvalues --   -0.99274  -0.84078  -0.72837  -0.66681  -0.60702
 Alpha  occ. eigenvalues --   -0.59113  -0.52549  -0.49628  -0.42539  -0.33108
 Alpha virt. eigenvalues --    0.05162   0.05508   0.05547   0.06598   0.07664
 Alpha virt. eigenvalues --    0.08727   0.09594   0.10138   0.11175   0.11204
 Alpha virt. eigenvalues --    0.12777   0.13444   0.14685   0.14825   0.19573

 Mulliken charges:
               1
     1  C   -0.198987
     2  C   -0.121316
     3  H    0.097296
     4  H    0.115928
     5  H    0.107080
     6  C   -0.121316
     7  C   -0.198987
     8  H    0.107080
     9  H    0.115928
    10  H    0.097296
 Sum of Mulliken charges =  -0.00000

 Dipole moment (field-independent basis, Debye):
    X=              0.0000    Y=             -0.0000    Z=              0.0783  Tot=              0.0783
 Quadrupole moment (field-independent basis, Debye-Ang):
   XX=            -28.3023   YY=            -24.4389   ZZ=            -23.2216
   XY=             -1.9586   XZ=              0.0000   YZ=              0.0000

 Normal termination of Gaussian 16 at Mon Jun  1 23:44:57 2020.
