 Gaussian 16, Revision A.03,

 -------------------------------
 #p BMK/6-31+G(2df,p) Opt=calcfc
 -------------------------------

 ----------------------------------------
 Hydrogen molecule G4(MP2)-6X calculation
 ----------------------------------------
 Symbolic Z-matrix:
 Charge =  0 Multiplicity = 1

 SCF Done:  E(RBMK) =  -78.5292360341     A.U. after    8 cycles
 SCF Done:  E(RBMK) =  -78.5309077199     A.U. after    8 cycles
 SCF Done:  E(RBMK) =  -78.5309113582     A.U. after    6 cycles
 Optimization completed.
    -- Stationary point found.
 Normal termination of Gaussian 16 at Mon Jun  1 23:45:55 2020.

 --------------------------------------------------
 #p Geom=AllCheck Guess=Read BMK/6-31+G(2df,p) Freq
 --------------------------------------------------

 Structure from the checkpoint file:  "DA-R2.chk"
 ----------------------------------------
 Hydrogen molecule G4(MP2)-6X calculation
 ----------------------------------------
 Charge =  0 Multiplicity = 1

 SCF Done:  E(RBMK) =  -78.5309113582     A.U. after    1 cycles

  Exact polarizability:  17.930  -0.000  22.096   0.000  -0.000  34.730
 Approx polarizability:  20.454   0.000  24.134  -0.000  -0.000  42.311

                      1                      2                      3
                     B2U                    B2G                    B3U
 Frequencies --    831.8514               992.2673               993.7366
 Red. masses --      1.0426                 1.5172                 1.1607
 Frc consts  --      0.4251                 0.8802                 0.6753
 IR Inten    --      0.6310                 0.0000               112.6046

                      4                      5                      6
                     AU                     B3G                    AG
 Frequencies --   1067.6599              1245.4473              1384.0598
 Red. masses --      1.0078                 1.5255                 1.2628
 Frc consts  --      0.6769                 1.3942                 1.4252
 IR Inten    --      0.0000                 0.0000                 0.0000

                      7                      8                      9
                     B1U                    AG                     B1U
 Frequencies --   1478.8828              1679.1996              3145.4503
 Red. masses --      1.1120                 2.8969                 1.0477
 Frc consts  --      1.4330                 4.8128                 6.1071
 IR Inten    --      9.9691                 0.0000                 9.2061

                     10                     11                     12
                     AG                     B3G                    B2U
 Frequencies --   3162.2842              3227.6150              3254.9171
 Red. masses --      1.0745                 1.1138                 1.1177
 Frc consts  --      6.3305                 6.8362                 6.9770
 IR Inten    --      0.0000                 0.0000                13.1022

 - Thermochemistry -
 -------------------
 Temperature   298.150 Kelvin.  Pressure   1.00000 Atm.
 Atom     1 has atomic number  6 and mass  12.00000

 Molecular mass:    28.03130 amu.
 Principal axes and moments of inertia in atomic units:
                           1         2         3
     Eigenvalues --    12.35042  60.22543  72.57585
           X            0.00000   0.00000   1.00000
           Y            0.00000   1.00000  -0.00000
           Z            1.00000  -0.00000  -0.00000
 This molecule is an asymmetric top.
 Rotational symmetry number  4.
 Rotational temperatures (Kelvin)      7.01304     1.43816     1.19343
 Rotational constants (GHZ):         146.12797    29.96643    24.86697
 Zero-point vibrational energy     134360.8 (Joules/Mol)
                                   32.11300 (Kcal/Mol)
 Vibrational temperatures:   1196.85  1427.65  1429.77  1536.12  1791.92
          (Kelvin)           1991.35  2127.78  2415.99  4525.60  4549.82
                             4643.82  4683.10

 Zero-point correction=                           0.051175 (Hartree/Particle)
 Thermal correction to Energy=                    0.054211
 Thermal correction to Enthalpy=                  0.055155
 Thermal correction to Gibbs Free Energy=         0.030296
 Sum of electronic and zero-point Energies=            -78.479736
 Sum of electronic and thermal Energies=               -78.476700
 Sum of electronic and thermal Enthalpies=             -78.475756
 Sum of electronic and thermal Free Energies=          -78.500615

                     E (Thermal)             CV                S
                      KCal/Mol        Cal/Mol-Kelvin    Cal/Mol-Kelvin
 Total                   34.018              8.049             52.320
 Electronic               0.000              0.000              0.000
 Translational            0.889              2.981             35.927
 Rotational               0.889              2.981             15.875
 Vibrational             32.241              2.088              0.518

 Optimization completed.
    -- Stationary point found.
 Normal termination of Gaussian 16 at Mon Jun  1 23:46:06 2020.

 ------------------------------------------------
 #p Geom=AllCheck Guess=Read CCSD(T,FrzG4)/GTBas1
 ------------------------------------------------

 Structure from the checkpoint file:  "DA-R2.chk"
 ----------------------------------------
 Hydrogen molecule G4(MP2)-6X calculation
 ----------------------------------------
 Charge =  0 Multiplicity = 1

 SCF Done:  E(RHF) =  -78.0308872907     A.U. after    9 cycles
 E2 =    -0.2541105356D+00 EUMP2 =    -0.78284997826279D+02
 CCSD(T)
 CCSD(T)= -0.78321935303D+02
 2\CCSD(T)=-78.3219353\RMSD=1.119e-09\PG=D02H [C2"(C1.C1),SG(H4)]\\@
 Normal termination of Gaussian 16 at Mon Jun  1 23:46:11 2020.

 ---------------------------------------------------
 #p Geom=AllCheck Guess=Read MP2(FrzG4)/GTMP2LargeXP
 ---------------------------------------------------

 Structure from the checkpoint file:  "DA-R2.chk"
 ----------------------------------------
 Hydrogen molecule G4(MP2)-6X calculation
 ----------------------------------------
 Charge =  0 Multiplicity = 1

 SCF Done:  E(RHF) =  -78.0618323000     A.U. after    9 cycles
 E2 =    -0.3314975806D+00 EUMP2 =    -0.78393329880590D+02
 Normal termination of Gaussian 16 at Mon Jun  1 23:46:14 2020.

 -------------------------------------
 #p Geom=AllCheck Guess=Read HF/GFHFB3
 -------------------------------------

 Structure from the checkpoint file:  "DA-R2.chk"
 ----------------------------------------
 Hydrogen molecule G4(MP2)-6X calculation
 ----------------------------------------
 Charge =  0 Multiplicity = 1

 SCF Done:  E(RHF) =  -78.0615129515     A.U. after    8 cycles
 Normal termination of Gaussian 16 at Mon Jun  1 23:46:19 2020.
 Gaussian 16:  ES64L-G16RevA.03 25-Dec-2016

 -------------------------------------
 #p Geom=AllCheck Guess=Read HF/GFHFB4
 -------------------------------------

 Structure from the checkpoint file:  "DA-R2.chk"
 ----------------------------------------
 Hydrogen molecule G4(MP2)-6X calculation
 ----------------------------------------
 Charge =  0 Multiplicity = 1

                         Standard orientation:
 ---------------------------------------------------------------------
 Center     Atomic      Atomic             Coordinates (Angstroms)
 Number     Number       Type             X           Y           Z
 ---------------------------------------------------------------------
      1          6           0        0.000000    0.000000    0.667188
      2          6           0        0.000000   -0.000000   -0.667188
      3          1           0       -0.000000    0.926231    1.238294
      4          1           0       -0.000000   -0.926231    1.238294
      5          1           0       -0.000000   -0.926231   -1.238294
      6          1           0        0.000000    0.926231   -1.238294
 ---------------------------------------------------------------------

 SCF Done:  E(RHF) =  -78.0685646099     A.U. after    7 cycles

 The electronic state is 1-AG.
 Alpha  occ. eigenvalues --  -11.23269 -11.23098  -1.03270  -0.79165  -0.64128
 Alpha  occ. eigenvalues --   -0.58819  -0.50610  -0.37720
 Alpha virt. eigenvalues --    0.05306   0.06776   0.07331   0.08785   0.08885
 Alpha virt. eigenvalues --    0.09516   0.11538   0.17713   0.18520   0.21438
 Alpha virt. eigenvalues --    0.24784   0.28575   0.30143   0.32792   0.35902

 Mulliken charges:
               1
     1  C   -0.207480
     2  C   -0.207480
     3  H    0.103740
     4  H    0.103740
     5  H    0.103740
     6  H    0.103740
 Sum of Mulliken charges =  -0.00000

 Dipole moment (field-independent basis, Debye):
    X=             -0.0000    Y=             -0.0000    Z=              0.0000  Tot=              0.0000
 Quadrupole moment (field-independent basis, Debye-Ang):
   XX=            -16.1305   YY=            -12.4086   ZZ=            -12.1464
   XY=              0.0000   XZ=             -0.0000   YZ=              0.0000

 Normal termination of Gaussian 16 at Mon Jun  1 23:46:27 2020.
