 Gaussian 16, Revision A.03,

 -----------------------------------------------------
 #p opt=(calcfc,ts,noeigen) freq b3lyp/6-31g* em=gd3bj
 -----------------------------------------------------

 ---------------------------------------
 optimize transition state and frequency
 ---------------------------------------
 Symbolic Z-matrix:
 Charge =  0 Multiplicity = 1

 SCF Done:  E(RB3LYP) =  -154.857562595     A.U. after   13 cycles
 SCF Done:  E(RB3LYP) =  -154.888442063     A.U. after   13 cycles
 SCF Done:  E(RB3LYP) =  -154.907779666     A.U. after   13 cycles
 SCF Done:  E(RB3LYP) =  -154.917898223     A.U. after   13 cycles
 SCF Done:  E(RB3LYP) =  -154.923238386     A.U. after   13 cycles
 SCF Done:  E(RB3LYP) =  -154.925051285     A.U. after   12 cycles
 SCF Done:  E(RB3LYP) =  -154.925873146     A.U. after   13 cycles
 SCF Done:  E(RB3LYP) =  -154.924976835     A.U. after   13 cycles
 SCF Done:  E(RB3LYP) =  -154.926545726     A.U. after   13 cycles
 SCF Done:  E(RB3LYP) =  -154.926926076     A.U. after   12 cycles
 SCF Done:  E(RB3LYP) =  -154.927028831     A.U. after   12 cycles
 SCF Done:  E(RB3LYP) =  -154.925277950     A.U. after   13 cycles
 SCF Done:  E(RB3LYP) =  -154.926751926     A.U. after   13 cycles
 SCF Done:  E(RB3LYP) =  -154.926575539     A.U. after   12 cycles
 SCF Done:  E(RB3LYP) =  -154.926991901     A.U. after   13 cycles
 SCF Done:  E(RB3LYP) =  -154.926991306     A.U. after   12 cycles
 SCF Done:  E(RB3LYP) =  -154.927032636     A.U. after   11 cycles
 SCF Done:  E(RB3LYP) =  -154.927032715     A.U. after    8 cycles
 Optimization completed.
    -- Stationary point found.
 Normal termination of Gaussian 16 at Mon Jun  1 23:56:08 2020.

 --------------------------------------------------------------------
 #P Geom=AllCheck Guess=TCheck SCRF=Check GenChk RB3LYP/6-31G(d) Freq
 --------------------------------------------------------------------

 Structure from the checkpoint file:  "EtOH-TS.chk"
 ---------------------------------------
 optimize transition state and frequency
 ---------------------------------------
 Charge =  0 Multiplicity = 1

 SCF Done:  E(RB3LYP) =  -154.927032715     A.U. after    1 cycles

  Exact polarizability:  38.179  -2.109  28.240  -2.447  -0.030  25.393
 Approx polarizability:  57.259  -2.064  40.809  -1.969   0.498  33.627

 ******    1 imaginary frequencies (negative Signs) ******

                      1                      2                      3
                      A                      A                      A
 Frequencies --  -2000.2842               380.3549               447.4140
 Red. masses --      1.1341                 1.0811                 3.9031
 Frc consts  --      2.6734                 0.0921                 0.4603
 IR Inten    --    564.4398                18.1226               282.5801

                      4                      5                      6
                      A                      A                      A
 Frequencies --    562.6958               633.1205               742.3274
 Red. masses --      3.7835                 1.2288                 1.0787
 Frc consts  --      0.7058                 0.2902                 0.3502
 IR Inten    --     70.6121                 5.9358                48.5595

                      7                      8                      9
                      A                      A                      A
 Frequencies --    834.9128               848.7934              1035.1619
 Red. masses --      1.0532                 1.2356                 1.0916
 Frc consts  --      0.4326                 0.5245                 0.6892
 IR Inten    --      7.7098                64.8768                10.0541

                     10                     11                     12
                      A                      A                      A
 Frequencies --   1129.3094              1245.1315              1248.0858
 Red. masses --      1.1885                 1.6249                 1.7425
 Frc consts  --      0.8930                 1.4843                 1.5992
 IR Inten    --      6.6428                35.7993                58.9347

                     13                     14                     15
                      A                      A                      A
 Frequencies --   1458.6891              1484.0108              1550.6058
 Red. masses --      1.0606                 1.1047                 1.4051
 Frc consts  --      1.3296                 1.4334                 1.9905
 IR Inten    --     23.5351                 3.8862                23.4820

                     16                     17                     18
                      A                      A                      A
 Frequencies --   1609.7413              3145.3246              3155.1016
 Red. masses --      1.0772                 1.0511                 1.0624
 Frc consts  --      1.6446                 6.1268                 6.2310
 IR Inten    --     36.8670                13.1994                12.2190

                     19                     20                     21
                      A                      A                      A
 Frequencies --   3222.1820              3249.9984              3671.9911
 Red. masses --      1.1158                 1.1161                 1.0668
 Frc consts  --      6.8255                 6.9458                 8.4750
 IR Inten    --      3.6012                18.7333                 5.9661

 - Thermochemistry -
 -------------------
 Temperature   298.150 Kelvin.  Pressure   1.00000 Atm.
 Atom     1 has atomic number  6 and mass  12.00000

 Molecular mass:    46.04186 amu.
 Principal axes and moments of inertia in atomic units:
                           1         2         3
     Eigenvalues --    67.85178 198.54069 236.93675
           X            0.99910  -0.03342  -0.02603
           Y            0.03296   0.99930  -0.01762
           Z            0.02660   0.01675   0.99951
 This molecule is an asymmetric top.
 Rotational symmetry number  1.
 Rotational temperatures (Kelvin)      1.27652     0.43625     0.36556
 Rotational constants (GHZ):          26.59829     9.09003     7.61697
    1 imaginary frequencies ignored.
 Zero-point vibrational energy     189338.7 (Joules/Mol)
                                   45.25303 (Kcal/Mol)
 Warning -- explicit consideration of   3 degrees of freedom as
           vibrations may cause significant error
 Vibrational temperatures:    547.25   643.73   809.59   910.92  1068.04
          (Kelvin)           1201.25  1221.22  1489.37  1624.82  1791.47
                             1795.72  2098.73  2135.16  2230.98  2316.06
                             4525.42  4539.49  4636.00  4676.02  5283.18

 Zero-point correction=                           0.072115 (Hartree/Particle)
 Thermal correction to Energy=                    0.076199
 Thermal correction to Enthalpy=                  0.077143
 Thermal correction to Gibbs Free Energy=         0.046875
 Sum of electronic and zero-point Energies=           -154.854917
 Sum of electronic and thermal Energies=              -154.850834
 Sum of electronic and thermal Enthalpies=            -154.849890
 Sum of electronic and thermal Free Energies=         -154.880158

                     E (Thermal)             CV                S
                      KCal/Mol        Cal/Mol-Kelvin    Cal/Mol-Kelvin
 Total                   47.815             14.062             63.705
 Electronic               0.000              0.000              0.000
 Translational            0.889              2.981             37.406
 Rotational               0.889              2.981             22.683
 Vibrational             46.038              8.100              3.616
 Vibration     1          0.750              1.512              1.038
 Vibration     2          0.807              1.367              0.804
 Vibration     3          0.918              1.112              0.518

 Optimization completed.
    -- Stationary point found.
 Normal termination of Gaussian 16 at Mon Jun  1 23:56:48 2020.
 Gaussian 16:  ES64L-G16RevA.03 25-Dec-2016

 -------------------------------------------------
 #p m062x/6-311g** em=gd3 geom=allcheck guess=read
 -------------------------------------------------

 Structure from the checkpoint file:  "EtOH-TS.chk"
 ---------------------------------------
 optimize transition state and frequency
 ---------------------------------------
 Charge =  0 Multiplicity = 1

                         Standard orientation:
 ---------------------------------------------------------------------
 Center     Atomic      Atomic             Coordinates (Angstroms)
 Number     Number       Type             X           Y           Z
 ---------------------------------------------------------------------
      1          6           0        1.136219   -0.409105    0.015907
      2          1           0        1.626408   -0.678453    0.948698
      3          1           0        1.685357   -0.649942   -0.890944
      4          1           0       -0.215351   -0.922283   -0.045169
      5          6           0        0.304087    0.741486    0.006139
      6          1           0        0.097142    1.294856    0.919774
      7          1           0        0.139265    1.307459   -0.905468
      8          8           0       -1.280758   -0.258653   -0.114202
      9          1           0       -1.728596   -0.276704    0.754457
 ---------------------------------------------------------------------

 SCF Done:  E(RM062X) =  -154.891299302     A.U. after   12 cycles

 The electronic state is 1-A.
 Alpha  occ. eigenvalues --  -19.61027 -10.60627 -10.50550  -1.09745  -0.86254
 Alpha  occ. eigenvalues --   -0.68197  -0.58347  -0.54468  -0.48289  -0.43793
 Alpha  occ. eigenvalues --   -0.41920  -0.40511  -0.27517
 Alpha virt. eigenvalues --    0.03131   0.06952   0.11288   0.12534   0.12737
 Alpha virt. eigenvalues --    0.18954   0.20649   0.28300   0.32737   0.33356
 Alpha virt. eigenvalues --    0.37153   0.42993   0.45336   0.51743   0.56601

 Mulliken charges:
               1
     1  C   -0.557820
     2  H    0.147382
     3  H    0.153542
     4  H    0.298240
     5  C   -0.088832
     6  H    0.158581
     7  H    0.177474
     8  O   -0.544071
     9  H    0.255503
 Sum of Mulliken charges =  -0.00000

 Dipole moment (field-independent basis, Debye):
    X=              0.1921    Y=              1.0841    Z=              1.4518  Tot=              1.8221
 Quadrupole moment (field-independent basis, Debye-Ang):
   XX=            -22.2308   YY=            -19.9439   ZZ=            -18.4832
   XY=             -0.1652   XZ=             -3.0907   YZ=             -0.4914

 Normal termination of Gaussian 16 at Mon Jun  1 23:57:15 2020.
