 Gaussian 16, Revision A.03,

 ----------------------------------------
 #p opt=calcfc freq b3lyp/6-31g* em=gd3bj
 ----------------------------------------

 ---------------------------------------
 optimize transition state and frequency
 ---------------------------------------
 Symbolic Z-matrix:
 Charge =  0 Multiplicity = 1

 SCF Done:  E(RB3LYP) =  -78.5895152582     A.U. after    8 cycles
 SCF Done:  E(RB3LYP) =  -78.5913929144     A.U. after    8 cycles
 SCF Done:  E(RB3LYP) =  -78.5913982822     A.U. after    6 cycles
 Optimization completed.
    -- Stationary point found.
 Normal termination of Gaussian 16 at Tue Jun  2 00:01:42 2020.

 --------------------------------------------------------------------
 #P Geom=AllCheck Guess=TCheck SCRF=Check GenChk RB3LYP/6-31G(d) Freq
 --------------------------------------------------------------------

 Structure from the checkpoint file:  "EtOH-P.chk"
 ---------------------------------------
 optimize transition state and frequency
 ---------------------------------------
 Charge =  0 Multiplicity = 1

 SCF Done:  E(RB3LYP) =  -78.5913982822     A.U. after    1 cycles

  Exact polarizability:   8.511   0.000  20.403  -0.000  -0.000  30.771
 Approx polarizability:  11.018   0.000  25.275  -0.000  -0.000  46.707

                      1                      2                      3
                     B2U                    B2G                    B3U
 Frequencies --    835.0495               955.6972               975.3745
 Red. masses --      1.0427                 1.5205                 1.1607
 Frc consts  --      0.4284                 0.8182                 0.6506
 IR Inten    --      0.7323                 0.0000                83.0275

                      4                      5                      6
                     AU                     B3G                    AG
 Frequencies --   1069.8893              1248.0900              1396.2530
 Red. masses --      1.0078                 1.5255                 1.2266
 Frc consts  --      0.6797                 1.4001                 1.4089
 IR Inten    --      0.0000                 0.0000                 0.0000

                      7                      8                      9
                     B1U                    AG                     B1U
 Frequencies --   1494.1486              1720.1277              3153.0377
 Red. masses --      1.1119                 3.1141                 1.0477
 Frc consts  --      1.4626                 5.4289                 6.1371
 IR Inten    --      5.2503                 0.0000                18.6948

                     10                     11                     12
                     AG                     B3G                    B2U
 Frequencies --   3168.4036              3223.4302              3249.0588
 Red. masses --      1.0736                 1.1149                 1.1176
 Frc consts  --      6.3501                 6.8256                 6.9514
 IR Inten    --      0.0000                 0.0000                33.4794

 - Thermochemistry -
 -------------------
 Temperature   298.150 Kelvin.  Pressure   1.00000 Atm.
 Atom     1 has atomic number  6 and mass  12.00000

 Molecular mass:    28.03130 amu.
 Principal axes and moments of inertia in atomic units:
                           1         2         3
     Eigenvalues --    12.28041  60.06521  72.34562
           X            0.00000   0.00000   1.00000
           Y            0.00000   1.00000  -0.00000
           Z            1.00000  -0.00000  -0.00000
 This molecule is an asymmetric top.
 Rotational symmetry number  4.
 Rotational temperatures (Kelvin)      7.05301     1.44200     1.19722
 Rotational constants (GHZ):         146.96096    30.04637    24.94610
 Zero-point vibrational energy     134511.5 (Joules/Mol)
                                   32.14901 (Kcal/Mol)
 Vibrational temperatures:   1201.45  1375.04  1403.35  1539.33  1795.72
          (Kelvin)           2008.90  2149.75  2474.88  4536.52  4558.63
                             4637.80  4674.67

 Zero-point correction=                           0.051233 (Hartree/Particle)
 Thermal correction to Energy=                    0.054275
 Thermal correction to Enthalpy=                  0.055219
 Thermal correction to Gibbs Free Energy=         0.030358
 Sum of electronic and zero-point Energies=            -78.540166
 Sum of electronic and thermal Energies=               -78.537124
 Sum of electronic and thermal Enthalpies=             -78.536179
 Sum of electronic and thermal Free Energies=          -78.561041

                     E (Thermal)             CV                S
                      KCal/Mol        Cal/Mol-Kelvin    Cal/Mol-Kelvin
 Total                   34.058              8.090             52.325
 Electronic               0.000              0.000              0.000
 Translational            0.889              2.981             35.927
 Rotational               0.889              2.981             15.863
 Vibrational             32.280              2.128              0.535

 Optimization completed.
    -- Stationary point found.
 Normal termination of Gaussian 16 at Tue Jun  2 00:01:49 2020.
 Gaussian 16:  ES64L-G16RevA.03 25-Dec-2016

 -------------------------------------------------
 #p m062x/6-311g** em=gd3 geom=allcheck guess=read
 -------------------------------------------------

 Structure from the checkpoint file:  "EtOH-P.chk"
 ---------------------------------------
 optimize transition state and frequency
 ---------------------------------------
 Charge =  0 Multiplicity = 1

                         Standard orientation:
 ---------------------------------------------------------------------
 Center     Atomic      Atomic             Coordinates (Angstroms)
 Number     Number       Type             X           Y           Z
 ---------------------------------------------------------------------
      1          6           0        0.000000   -0.000000    0.665481
      2          6           0        0.000000   -0.000000   -0.665481
      3          1           0        0.000000    0.923602    1.239269
      4          1           0       -0.000000   -0.923602    1.239269
      5          1           0       -0.000000   -0.923602   -1.239269
      6          1           0        0.000000    0.923602   -1.239269
 ---------------------------------------------------------------------

 SCF Done:  E(RM062X) =  -78.5623345969     A.U. after    8 cycles

 The electronic state is 1-AG.
 Alpha  occ. eigenvalues --  -10.53656 -10.53544  -0.85681  -0.66056  -0.53881
 Alpha  occ. eigenvalues --   -0.48425  -0.41506  -0.33238
 Alpha virt. eigenvalues --    0.04797   0.09819   0.12157   0.12740   0.19275
 Alpha virt. eigenvalues --    0.34248   0.35078   0.35449   0.43215   0.45304
 Alpha virt. eigenvalues --    0.46170   0.55619   0.62709   0.67433   0.71753

 Mulliken charges:
               1
     1  C   -0.269763
     2  C   -0.269763
     3  H    0.134882
     4  H    0.134882
     5  H    0.134882
     6  H    0.134882
 Sum of Mulliken charges =   0.00000

 Dipole moment (field-independent basis, Debye):
    X=             -0.0000    Y=              0.0000    Z=             -0.0000  Tot=              0.0000
 Quadrupole moment (field-independent basis, Debye-Ang):
   XX=            -15.5771   YY=            -12.2646   ZZ=            -12.1406
   XY=              0.0000   XZ=              0.0000   YZ=             -0.0000

 Normal termination of Gaussian 16 at Tue Jun  2 00:01:52 2020.
