 Gaussian 16, Revision A.03,

 ----------------------------------------
 #p opt=calcfc freq b3lyp/6-31g* em=gd3bj
 ----------------------------------------

 ---------------------------------------
 optimize transition state and frequency
 ---------------------------------------
 Symbolic Z-matrix:
 Charge =  0 Multiplicity = 1

 SCF Done:  E(RB3LYP) =  -76.4086014964     A.U. after    8 cycles
 SCF Done:  E(RB3LYP) =  -76.4095260034     A.U. after    9 cycles
 SCF Done:  E(RB3LYP) =  -76.4095278982     A.U. after    6 cycles
 Optimization completed.
    -- Stationary point found.
 Normal termination of Gaussian 16 at Tue Jun  2 00:04:42 2020.

 --------------------------------------------------------------------
 #P Geom=AllCheck Guess=TCheck SCRF=Check GenChk RB3LYP/6-31G(d) Freq
 --------------------------------------------------------------------

 Structure from the checkpoint file:  "EtOH-P2.chk"
 ---------------------------------------
 optimize transition state and frequency
 ---------------------------------------
 Charge =  0 Multiplicity = 1

 SCF Done:  E(RB3LYP) =  -76.4095278982     A.U. after    1 cycles

  Exact polarizability:   2.830   0.000   7.395   0.000  -0.000   5.423
 Approx polarizability:   3.082   0.000   8.971   0.000   0.000   6.755

                      1                      2                      3
                     A1                     A1                     B2
 Frequencies --   1713.0901              3727.1527              3849.0907
 Red. masses --      1.0825                 1.0453                 1.0810
 Frc consts  --      1.8717                 8.5557                 9.4362
 IR Inten    --     75.7900                 1.6919                19.3907

 - Thermochemistry -
 -------------------
 Temperature   298.150 Kelvin.  Pressure   1.00000 Atm.
 Atom     1 has atomic number  8 and mass  15.99491

 Molecular mass:    18.01056 amu.
 Principal axes and moments of inertia in atomic units:
                           1         2         3
     Eigenvalues --     2.29145   4.17462   6.46607
           X            0.00000   0.00000   1.00000
           Y            1.00000   0.00000   0.00000
           Z            0.00000   1.00000   0.00000
 This molecule is an asymmetric top.
 Rotational symmetry number  2.
 Rotational temperatures (Kelvin)     37.79879    20.74774    13.39515
 Rotational constants (GHZ):         787.59898   432.31265   279.10956
 Zero-point vibrational energy      55562.6 (Joules/Mol)
                                   13.27977 (Kcal/Mol)
 Vibrational temperatures:   2464.75  5362.54  5537.98
          (Kelvin)

 Zero-point correction=                           0.021163 (Hartree/Particle)
 Thermal correction to Energy=                    0.023997
 Thermal correction to Enthalpy=                  0.024941
 Thermal correction to Gibbs Free Energy=         0.003495
 Sum of electronic and zero-point Energies=            -76.388365
 Sum of electronic and thermal Energies=               -76.385531
 Sum of electronic and thermal Enthalpies=             -76.384586
 Sum of electronic and thermal Free Energies=          -76.406032

                     E (Thermal)             CV                S
                      KCal/Mol        Cal/Mol-Kelvin    Cal/Mol-Kelvin
 Total                   15.058              5.997             45.137
 Electronic               0.000              0.000              0.000
 Translational            0.889              2.981             34.608
 Rotational               0.889              2.981             10.524
 Vibrational             13.281              0.035              0.005

 Optimization completed.
    -- Stationary point found.
 Normal termination of Gaussian 16 at Tue Jun  2 00:04:45 2020.
 Gaussian 16:  ES64L-G16RevA.03 25-Dec-2016

 -------------------------------------------------
 #p m062x/6-311g** em=gd3 geom=allcheck guess=read
 -------------------------------------------------

 Structure from the checkpoint file:  "EtOH-P2.chk"
 ---------------------------------------
 optimize transition state and frequency
 ---------------------------------------
 Charge =  0 Multiplicity = 1

                         Standard orientation:
 ---------------------------------------------------------------------
 Center     Atomic      Atomic             Coordinates (Angstroms)
 Number     Number       Type             X           Y           Z
 ---------------------------------------------------------------------
      1          8           0        0.000000   -0.000000    0.119743
      2          1           0       -0.000000    0.761556   -0.478973
      3          1           0       -0.000000   -0.761556   -0.478973
 ---------------------------------------------------------------------

 SCF Done:  E(RM062X) =  -76.4121641059     A.U. after    9 cycles

 The electronic state is 1-A1.
 Alpha  occ. eigenvalues --  -19.60170  -1.11724  -0.59086  -0.45758  -0.38368
 Alpha virt. eigenvalues --    0.06659   0.13692   0.42594   0.47069   0.83042
 Alpha virt. eigenvalues --    0.83603   0.92654   1.12821   1.29179   1.31890
 Alpha virt. eigenvalues --    1.50660   1.70177   1.97382   2.10134   2.33525

 Mulliken charges:
               1
     1  O   -0.506287
     2  H    0.253144
     3  H    0.253144
 Sum of Mulliken charges =  -0.00000

 Dipole moment (field-independent basis, Debye):
    X=             -0.0000    Y=             -0.0000    Z=             -2.1215  Tot=              2.1215
 Quadrupole moment (field-independent basis, Debye-Ang):
   XX=             -7.2295   YY=             -4.2820   ZZ=             -6.0505
   XY=              0.0000   XZ=              0.0000   YZ=             -0.0000

 Normal termination of Gaussian 16 at Tue Jun  2 00:04:47 2020.
