 Gaussian 16, Revision A.03,

 ----------------------------------------
 #p opt=calcfc freq b3lyp/6-31g* em=gd3bj
 ----------------------------------------

 ---------------------------------------
 optimize transition state and frequency
 ---------------------------------------
 Symbolic Z-matrix:
 Charge =  0 Multiplicity = 1

 SCF Done:  E(RB3LYP) =  -155.032176746     A.U. after   12 cycles
 SCF Done:  E(RB3LYP) =  -155.036240816     A.U. after   11 cycles
 SCF Done:  E(RB3LYP) =  -155.039420323     A.U. after   12 cycles
 SCF Done:  E(RB3LYP) =  -155.040477201     A.U. after   11 cycles
 SCF Done:  E(RB3LYP) =  -155.039994029     A.U. after   11 cycles
 SCF Done:  E(RB3LYP) =  -155.040772146     A.U. after   11 cycles
 SCF Done:  E(RB3LYP) =  -155.040785206     A.U. after    8 cycles
 SCF Done:  E(RB3LYP) =  -155.040785533     A.U. after    7 cycles
 Optimization completed.
    -- Stationary point found.
 Normal termination of Gaussian 16 at Mon Jun  1 23:59:56 2020.

 --------------------------------------------------------------------
 #P Geom=AllCheck Guess=TCheck SCRF=Check GenChk RB3LYP/6-31G(d) Freq
 --------------------------------------------------------------------

 Structure from the checkpoint file:  "EtOH-R.chk"
 ---------------------------------------
 optimize transition state and frequency
 ---------------------------------------
 Charge =  0 Multiplicity = 1

 SCF Done:  E(RB3LYP) =  -155.040785533     A.U. after    1 cycles

  Exact polarizability:  29.633  -0.352  25.722  -0.000  -0.000  23.781
 Approx polarizability:  35.203   0.763  33.946  -0.000  -0.000  30.998

                      1                      2                      3
                      A                      A                      A
 Frequencies --    250.7405               299.3715               418.0515
 Red. masses --      1.1522                 1.0689                 2.6386
 Frc consts  --      0.0427                 0.0564                 0.2717
 IR Inten    --     35.8227                95.3881                11.2774

                      4                      5                      6
                      A                      A                      A
 Frequencies --    830.6736               913.1792              1043.9672
 Red. masses --      1.0796                 2.2015                 2.1642
 Frc consts  --      0.4389                 1.0816                 1.3897
 IR Inten    --      0.0127                10.3066                55.7808

                      7                      8                      9
                      A                      A                      A
 Frequencies --   1125.3695              1195.2386              1292.3194
 Red. masses --      2.2465                 1.4962                 1.2486
 Frc consts  --      1.6763                 1.2594                 1.2287
 IR Inten    --     23.5388                 4.8690                86.2791

                     10                     11                     12
                      A                      A                      A
 Frequencies --   1310.7789              1427.4613              1482.1536
 Red. masses --      1.1219                 1.2320                 1.4606
 Frc consts  --      1.1357                 1.4791                 1.8904
 IR Inten    --      0.0830                 0.4554                16.2443

                     13                     14                     15
                      A                      A                      A
 Frequencies --   1513.8633              1532.0134              1561.3427
 Red. masses --      1.0408                 1.0455                 1.0906
 Frc consts  --      1.4053                 1.4458                 1.5664
 IR Inten    --      4.4273                 3.0650                 2.6684

                     16                     17                     18
                      A                      A                      A
 Frequencies --   2983.3589              3007.0132              3059.0181
 Red. masses --      1.0551                 1.1083                 1.0350
 Frc consts  --      5.5328                 5.9046                 5.7061
 IR Inten    --     73.3686                77.6709                15.6929

                     19                     20                     21
                      A                      A                      A
 Frequencies --   3130.2494              3135.2368              3752.5452
 Red. masses --      1.1025                 1.1037                 1.0663
 Frc consts  --      6.3646                 6.3918                 8.8469
 IR Inten    --     31.4744                34.2476                 9.6542

 - Thermochemistry -
 -------------------
 Temperature   298.150 Kelvin.  Pressure   1.00000 Atm.
 Atom     1 has atomic number  6 and mass  12.00000

 Molecular mass:    46.04186 amu.
 Principal axes and moments of inertia in atomic units:
                           1         2         3
     Eigenvalues --    51.64569 192.63330 221.61513
           X            0.99909  -0.04265   0.00000
           Y            0.04265   0.99909   0.00000
           Z           -0.00000  -0.00000   1.00000
 This molecule is an asymmetric top.
 Rotational symmetry number  1.
 Rotational temperatures (Kelvin)      1.67708     0.44963     0.39083
 Rotational constants (GHZ):          34.94466     9.36879     8.14358
 Zero-point vibrational energy     210925.2 (Joules/Mol)
                                   50.41234 (Kcal/Mol)
 Warning -- explicit consideration of   3 degrees of freedom as
           vibrations may cause significant error
 Vibrational temperatures:    360.76   430.73   601.48  1195.15  1313.86
          (Kelvin)           1502.04  1619.16  1719.68  1859.36  1885.92
                             2053.80  2132.49  2178.11  2204.23  2246.42
                             4292.39  4326.42  4401.24  4503.73  4510.91
                             5399.08

 Zero-point correction=                           0.080337 (Hartree/Particle)
 Thermal correction to Energy=                    0.084607
 Thermal correction to Enthalpy=                  0.085552
 Thermal correction to Gibbs Free Energy=         0.054966
 Sum of electronic and zero-point Energies=           -154.960448
 Sum of electronic and thermal Energies=              -154.956178
 Sum of electronic and thermal Enthalpies=            -154.955234
 Sum of electronic and thermal Free Energies=         -154.985819

                     E (Thermal)             CV                S
                      KCal/Mol        Cal/Mol-Kelvin    Cal/Mol-Kelvin
 Total                   53.092             13.382             64.372
 Electronic               0.000              0.000              0.000
 Translational            0.889              2.981             37.406
 Rotational               0.889              2.981             22.316
 Vibrational             51.314              7.420              4.651
 Vibration     1          0.663              1.762              1.725
 Vibration     2          0.692              1.675              1.420
 Vibration     3          0.781              1.431              0.899

 Optimization completed.
    -- Stationary point found.
 Normal termination of Gaussian 16 at Tue Jun  2 00:00:26 2020.
 Gaussian 16:  ES64L-G16RevA.03 25-Dec-2016

 -------------------------------------------------
 #p m062x/6-311g** em=gd3 geom=allcheck guess=read
 -------------------------------------------------

 Structure from the checkpoint file:  "EtOH-R.chk"
 ---------------------------------------
 optimize transition state and frequency
 ---------------------------------------
 Charge =  0 Multiplicity = 1

                         Standard orientation:
 ---------------------------------------------------------------------
 Center     Atomic      Atomic             Coordinates (Angstroms)
 Number     Number       Type             X           Y           Z
 ---------------------------------------------------------------------
      1          6           0        1.221728   -0.222141   -0.000006
      2          1           0        1.286275   -0.860885   -0.886759
      3          1           0        1.286330   -0.860658    0.886929
      4          1           0        2.075007    0.464904   -0.000037
      5          6           0       -0.086828    0.549134   -0.000006
      6          1           0       -0.138227    1.201083    0.887539
      7          1           0       -0.138161    1.200979   -0.887645
      8          8           0       -1.149423   -0.399719   -0.000002
      9          1           0       -1.985239    0.090372    0.000061
 ---------------------------------------------------------------------

 SCF Done:  E(RM062X) =  -155.006964039     A.U. after   10 cycles

 The electronic state is 1-A.
 Alpha  occ. eigenvalues --  -19.60715 -10.58102 -10.52225  -1.13304  -0.84187
 Alpha  occ. eigenvalues --   -0.69301  -0.58845  -0.53618  -0.47041  -0.44345
 Alpha  occ. eigenvalues --   -0.42922  -0.39619  -0.34223
 Alpha virt. eigenvalues --    0.07219   0.10407   0.13302   0.13544   0.15733
 Alpha virt. eigenvalues --    0.18127   0.23643   0.26132   0.34702   0.35100
 Alpha virt. eigenvalues --    0.40477   0.43055   0.45899   0.51576   0.58616

 Mulliken charges:
               1
     1  C   -0.401796
     2  H    0.144971
     3  H    0.144960
     4  H    0.130009
     5  C   -0.077265
     6  H    0.115784
     7  H    0.115781
     8  O   -0.426916
     9  H    0.254472
 Sum of Mulliken charges =  -0.00000

 Dipole moment (field-independent basis, Debye):
    X=             -0.2314    Y=              1.6508    Z=              0.0001  Tot=              1.6669
 Quadrupole moment (field-independent basis, Debye-Ang):
   XX=            -16.9933   YY=            -20.6545   ZZ=            -20.1376
   XY=             -1.9406   XZ=             -0.0003   YZ=              0.0003

 Normal termination of Gaussian 16 at Tue Jun  2 00:00:44 2020.
