 Gaussian 16, Revision A.03,

 --------------------------------------------
 #p BMK/6-31+G(2df,p) Opt=(ts,noeigen,calcfc)
 --------------------------------------------

 ----------------------
 G4(MP2)-6X calculation
 ----------------------
 Symbolic Z-matrix:
 Charge =  0 Multiplicity = 1

 SCF Done:  E(RBMK) =  -234.379372886     A.U. after   12 cycles
 SCF Done:  E(RBMK) =  -234.379925405     A.U. after   10 cycles
 SCF Done:  E(RBMK) =  -234.379925994     A.U. after    8 cycles
 Optimization completed.
    -- Stationary point found.
 Normal termination of Gaussian 16 at Thu Mar 12 11:42:07 2020.

 --------------------------------------------------
 #p Geom=AllCheck Guess=Read BMK/6-31+G(2df,p) Freq
 --------------------------------------------------

 Structure from the checkpoint file:  "DA-TS.chk"
 ----------------------
 G4(MP2)-6X calculation
 ----------------------
 Charge =  0 Multiplicity = 1

 SCF Done:  E(RBMK) =  -234.379925994     A.U. after    1 cycles

  Exact polarizability:  93.843  -0.003  89.646   1.739  -0.005  60.585
 Approx polarizability: 128.208  -0.010 124.366   4.106  -0.011  78.408

 ******    1 imaginary frequencies (negative Signs) ******

                      1                      2                      3
                      A                      A                      A
 Frequencies --   -597.2940                84.1706               163.4752
 Red. masses --      8.4516                 3.3680                 2.4244
 Frc consts  --      1.7765                 0.0141                 0.0382
 IR Inten    --     10.4674                 3.2657                 0.3750

                      4                      5                      6
                      A                      A                      A
 Frequencies --    277.5935               351.0408               396.7694
 Red. masses --      2.7050                 2.4258                 2.8900
 Frc consts  --      0.1228                 0.1761                 0.2681
 IR Inten    --      0.5480                 0.2055                 2.5331

                      7                      8                      9
                      A                      A                      A
 Frequencies --    479.9972               588.3055               615.3344
 Red. masses --      2.3869                 2.0319                 1.0861
 Frc consts  --      0.3240                 0.4143                 0.2423
 IR Inten    --      0.1260                 0.0349                 1.3103

                     10                     11                     12
                      A                      A                      A
 Frequencies --    694.9060               786.5075               807.5117
 Red. masses --      1.2176                 1.4861                 1.1271
 Frc consts  --      0.3464                 0.5416                 0.4330
 IR Inten    --     36.4743                 1.3790                 0.7928

                     13                     14                     15
                      A                      A                      A
 Frequencies --    841.0119               922.2799               938.7102
 Red. masses --      1.0358                 1.1598                 1.4844
 Frc consts  --      0.4316                 0.5813                 0.7706
 IR Inten    --      0.4405                 6.7036                19.2756

                     16                     17                     18
                      A                      A                      A
 Frequencies --    977.8149               992.0242              1001.2539
 Red. masses --      1.2012                 1.3223                 1.1233
 Frc consts  --      0.6767                 0.7667                 0.6635
 IR Inten    --      8.8102                 1.1268                 0.9014

                     19                     20                     21
                      A                      A                      A
 Frequencies --   1013.2867              1020.8785              1090.2558
 Red. masses --      1.1911                 1.1337                 1.7012
 Frc consts  --      0.7205                 0.6962                 1.1914
 IR Inten    --     50.8564                 7.3797                 2.8896

                     22                     23                     24
                      A                      A                      A
 Frequencies --   1106.5574              1245.8424              1251.0922
 Red. masses --      1.5357                 1.4178                 1.7837
 Frc consts  --      1.1079                 1.2965                 1.6449
 IR Inten    --      0.9283                 0.0415                 0.1790

                     25                     26                     27
                      A                      A                      A
 Frequencies --   1274.4812              1313.3539              1437.2957
 Red. masses --      1.4743                 1.4829                 1.2309
 Frc consts  --      1.4109                 1.5071                 1.4982
 IR Inten    --      0.7617                 2.9270                 1.1963

                     28                     29                     30
                      A                      A                      A
 Frequencies --   1472.9103              1486.0916              1538.9860
 Red. masses --      1.1081                 1.5218                 1.4998
 Frc consts  --      1.4164                 1.9801                 2.0930
 IR Inten    --      2.3820                 8.9374                 2.6133

                     31                     32                     33
                      A                      A                      A
 Frequencies --   1586.6107              1594.4362              3156.0323
 Red. masses --      2.5537                 2.3200                 1.0520
 Frc consts  --      3.7876                 3.4750                 6.1736
 IR Inten    --      3.3091                 0.1673                 2.4901

                     34                     35                     36
                      A                      A                      A
 Frequencies --   3161.7516              3161.9161              3170.3709
 Red. masses --      1.0593                 1.0659                 1.0648
 Frc consts  --      6.2390                 6.2789                 6.3059
 IR Inten    --      7.9224                 0.9947                 1.3362

                     37                     38                     39
                      A                      A                      A
 Frequencies --   3171.5454              3187.6268              3243.8705
 Red. masses --      1.0791                 1.0935                 1.1138
 Frc consts  --      6.3954                 6.5466                 6.9051
 IR Inten    --     10.7630                 8.7775                 0.0621

                     40                     41                     42
                      A                      A                      A
 Frequencies --   3252.3503              3259.1665              3269.2262
 Red. masses --      1.1140                 1.1137                 1.1171
 Frc consts  --      6.9428                 6.9700                 7.0348
 IR Inten    --      2.8787                 6.1369                 6.2019

 - Thermochemistry -
 -------------------
 Temperature   298.150 Kelvin.  Pressure   1.00000 Atm.
 Atom     1 has atomic number  6 and mass  12.00000

 Molecular mass:    82.07825 amu.
 Principal axes and moments of inertia in atomic units:
                           1         2         3
     Eigenvalues --   416.36144 518.93650 795.35903
           X            0.99974   0.00030   0.02265
           Y           -0.00030   1.00000  -0.00004
           Z           -0.02265   0.00003   0.99974
 This molecule is an asymmetric top.
 Rotational symmetry number  1.
 Rotational temperatures (Kelvin)      0.20803     0.16691     0.10890
 Rotational constants (GHZ):           4.33455     3.47777     2.26909
    1 imaginary frequencies ignored.
 Zero-point vibrational energy     367161.7 (Joules/Mol)
                                   87.75375 (Kcal/Mol)
 Warning -- explicit consideration of   8 degrees of freedom as
           vibrations may cause significant error
 Vibrational temperatures:    121.10   235.20   399.40   505.07   570.86
          (Kelvin)            690.61   846.44   885.33   999.81  1131.61
                             1161.83  1210.03  1326.96  1350.59  1406.86
                             1427.30  1440.58  1457.89  1468.82  1568.63
                             1592.09  1792.49  1800.04  1833.69  1889.62
                             2067.95  2119.19  2138.15  2214.26  2282.78
                             2294.04  4540.83  4549.06  4549.29  4561.46
                             4563.15  4586.28  4667.21  4679.41  4689.21
                             4703.69

 Zero-point correction=                           0.139845 (Hartree/Particle)
 Thermal correction to Energy=                    0.146491
 Thermal correction to Enthalpy=                  0.147436
 Thermal correction to Gibbs Free Energy=         0.109757
 Sum of electronic and zero-point Energies=           -234.240081
 Sum of electronic and thermal Energies=              -234.233435
 Sum of electronic and thermal Enthalpies=            -234.232490
 Sum of electronic and thermal Free Energies=         -234.270169

                     E (Thermal)             CV                S
                      KCal/Mol        Cal/Mol-Kelvin    Cal/Mol-Kelvin
 Total                   91.925             25.107             79.301
 Electronic               0.000              0.000              0.000
 Translational            0.889              2.981             39.129
 Rotational               0.889              2.981             26.644
 Vibrational             90.147             19.146             13.528
 Vibration     1          0.601              1.960              3.791
 Vibration     2          0.623              1.887              2.509
 Vibration     3          0.679              1.715              1.548
 Vibration     4          0.728              1.573              1.162
 Vibration     5          0.763              1.477              0.975
 Vibration     6          0.836              1.294              0.710
 Vibration     7          0.946              1.057              0.470
 Vibration     8          0.975              0.999              0.424

 Optimization completed.
    -- Stationary point found.
 Normal termination of Gaussian 16 at Thu Mar 12 11:45:07 2020.

 ------------------------------------------------
 #p Geom=AllCheck Guess=Read CCSD(T,FrzG4)/GTBas1
 ------------------------------------------------

 Structure from the checkpoint file:  "DA-TS.chk"
 ----------------------
 G4(MP2)-6X calculation
 ----------------------
 Charge =  0 Multiplicity = 1

 SCF Done:  E(RHF) =  -232.879422507     A.U. after   12 cycles
 E2 =    -0.7995018647D+00 EUMP2 =    -0.23367892437138D+03
 CCSD(T)
 CCSD(T)= -0.23376891485D+03
 23\CCSD=-233.7317225\CCSD(T)=-233.7689148\RMSD=9.228e-09\PG=C01 [X(C6H
 Normal termination of Gaussian 16 at Thu Mar 12 11:46:08 2020.

 ---------------------------------------------------
 #p Geom=AllCheck Guess=Read MP2(FrzG4)/GTMP2LargeXP
 ---------------------------------------------------

 Structure from the checkpoint file:  "DA-TS.chk"
 ----------------------
 G4(MP2)-6X calculation
 ----------------------
 Charge =  0 Multiplicity = 1

 SCF Done:  E(RHF) =  -232.959801107     A.U. after   12 cycles
 E2 =    -0.1030761416D+01 EUMP2 =    -0.23399056252367D+03
 Normal termination of Gaussian 16 at Thu Mar 12 11:47:08 2020.

 -------------------------------------
 #p Geom=AllCheck Guess=Read HF/GFHFB3
 -------------------------------------

 Structure from the checkpoint file:  "DA-TS.chk"
 ----------------------
 G4(MP2)-6X calculation
 ----------------------
 Charge =  0 Multiplicity = 1

 SCF Done:  E(RHF) =  -232.959395307     A.U. after   10 cycles
 Normal termination of Gaussian 16 at Thu Mar 12 11:47:25 2020.
 Gaussian 16:  ES64L-G16RevA.03 25-Dec-2016

 -------------------------------------
 #p Geom=AllCheck Guess=Read HF/GFHFB4
 -------------------------------------

 Structure from the checkpoint file:  "DA-TS.chk"
 ----------------------
 G4(MP2)-6X calculation
 ----------------------
 Charge =  0 Multiplicity = 1

                         Standard orientation:
 ---------------------------------------------------------------------
 Center     Atomic      Atomic             Coordinates (Angstroms)
 Number     Number       Type             X           Y           Z
 ---------------------------------------------------------------------
      1          6           0       -1.317690   -0.705424   -0.293968
      2          6           0       -1.315658    0.708741   -0.293777
      3          1           0       -1.862019   -1.217093   -1.086112
      4          1           0       -1.858498    1.222181   -1.085792
      5          6           0       -0.445085    1.433835    0.498404
      6          1           0       -0.378554    2.514468    0.389964
      7          1           0       -0.107830    1.045127    1.453188
      8          6           0       -0.449431   -1.433287    0.498131
      9          1           0       -0.110763   -1.045751    1.452885
     10          1           0       -0.385779   -2.514047    0.389269
     11          6           0        1.570853   -0.695203   -0.232316
     12          1           0        2.055333   -1.241058    0.573365
     13          1           0        1.448628   -1.241479   -1.161772
     14          6           0        1.572076    0.691800   -0.232440
     15          1           0        1.451074    1.238019   -1.162098
     16          1           0        2.058017    1.236862    0.572903
 ---------------------------------------------------------------------

 SCF Done:  E(RHF) =  -232.978754674     A.U. after   10 cycles

 The electronic state is 1-A.
 Alpha  occ. eigenvalues --  -11.23675 -11.23672 -11.22840 -11.22711 -11.22274
 Alpha  occ. eigenvalues --  -11.22166  -1.09161  -1.01220  -0.97666  -0.84852
 Alpha  occ. eigenvalues --   -0.79479  -0.71554  -0.66889  -0.63645  -0.59491
 Alpha  occ. eigenvalues --   -0.56896  -0.56702  -0.52008  -0.50512  -0.48927
 Alpha  occ. eigenvalues --   -0.47198  -0.30591  -0.30417
 Alpha virt. eigenvalues --    0.04827   0.04974   0.05557   0.06076   0.06727
 Alpha virt. eigenvalues --    0.07258   0.08223   0.08746   0.09828   0.10746
 Alpha virt. eigenvalues --    0.11283   0.11558   0.12289   0.12320   0.12934

 Mulliken charges:
               1
     1  C   -0.143513
     2  C   -0.143542
     3  H    0.108722
     4  H    0.108725
     5  C   -0.182107
     6  H    0.122304
     7  H    0.089593
     8  C   -0.182331
     9  H    0.089580
    10  H    0.122317
    11  C   -0.206488
    12  H    0.109755
    13  H    0.101761
    14  C   -0.206293
    15  H    0.101746
    16  H    0.109773
 Sum of Mulliken charges =  -0.00000

 Dipole moment (field-independent basis, Debye):
    X=              0.5110    Y=              0.0002    Z=              0.0302  Tot=              0.5119
 Quadrupole moment (field-independent basis, Debye-Ang):
   XX=            -44.1472   YY=            -36.2705   ZZ=            -37.7700
   XY=              0.0110   XZ=              3.7539   YZ=             -0.0046

 Normal termination of Gaussian 16 at Thu Mar 12 11:49:54 2020.
